<?xml version="1.0" encoding="UTF-8"?>

<!-- generated on 2023-04-12 13:14:31 by Eclipse SUMO GUI Version 1.12.0
<configuration xmlns:xsi="http://www.w3.org/2001/XMLSchema-instance" xsi:noNamespaceSchemaLocation="http://sumo.dlr.de/xsd/sumoConfiguration.xsd">

    <input>
        <net-file value=".\ChicagoAve.net.xml"/>
        <route-files value="peds_dist.rou.xml,taxis_Chicago.rou.xml,cars_Chicago.rou.xml"/>
        <additional-files value="busStop6.add.xml,ChicagoAve.poly.xml"/>
    </input>

    <output>
        <tripinfo-output value="tripinfo.xml"/>
    </output>

    <time>
        <begin value="0"/>
        <end value="3610"/>
        <step-length value="1.0"/>
    </time>

    <report>
        <xml-validation value="never"/>
        <xml-validation.routes value="never"/>
    </report>

    <taxi_device>
        <device.taxi.dispatch-algorithm value="traci"/>
        <device.taxi.idle-algorithm value="randomCircling"/>
    </taxi_device>

    <traci_server>
        <remote-port value="8032"/>
    </traci_server>

    <gui_only>
        <tracker-interval value="1.0"/>
    </gui_only>

</configuration>
-->

<tripinfos xmlns:xsi="http://www.w3.org/2001/XMLSchema-instance" xsi:noNamespaceSchemaLocation="http://sumo.dlr.de/xsd/tripinfo_file.xsd">
    <tripinfo id="c9" depart="14.00" departLane="-7098383#1_1" departPos="5.10" departSpeed="0.00" departDelay="0.50" arrival="54.00" arrivalLane="-80565710#6_1" arrivalPos="143.65" arrivalSpeed="16.22" duration="40.00" routeLength="417.28" waitingTime="0.00" waitingCount="0" stopTime="0.00" timeLoss="7.49" rerouteNo="0" devices="tripinfo_c9" vType="car" speedFactor="0.73" vaporized=""/>
    <tripinfo id="c20" depart="30.00" departLane="-80798171#5_1" departPos="5.10" departSpeed="0.00" departDelay="0.00" arrival="69.00" arrivalLane="-7098383#1_1" arrivalPos="152.57" arrivalSpeed="15.43" duration="39.00" routeLength="489.69" waitingTime="0.00" waitingCount="0" stopTime="0.00" timeLoss="11.38" rerouteNo="0" devices="tripinfo_c20" vType="car" speedFactor="1.12" vaporized=""/>
    <tripinfo id="c2" depart="3.00" departLane="7078477#0_1" departPos="5.10" departSpeed="0.00" departDelay="0.00" arrival="82.00" arrivalLane="-80565714#9_1" arrivalPos="241.83" arrivalSpeed="27.79" duration="79.00" routeLength="1198.09" waitingTime="0.00" waitingCount="0" stopTime="0.00" timeLoss="20.71" rerouteNo="0" devices="tripinfo_c2" vType="car" speedFactor="1.02" vaporized=""/>
    <tripinfo id="c3" depart="5.00" departLane="-7142812#4_1" departPos="5.10" departSpeed="0.00" departDelay="0.50" arrival="84.00" arrivalLane="-7127213#1_1" arrivalPos="189.88" arrivalSpeed="13.93" duration="79.00" routeLength="788.12" waitingTime="5.00" waitingCount="1" stopTime="0.00" timeLoss="29.21" rerouteNo="0" devices="tripinfo_c3" vType="car" speedFactor="1.00" vaporized=""/>
    <tripinfo id="c14" depart="21.00" departLane="654487789#0_1" departPos="5.10" departSpeed="0.00" departDelay="0.00" arrival="90.00" arrivalLane="626800306#0_2" arrivalPos="376.98" arrivalSpeed="27.99" duration="69.00" routeLength="1026.70" waitingTime="10.00" waitingCount="1" stopTime="0.00" timeLoss="31.48" rerouteNo="0" devices="tripinfo_c14" vType="car" speedFactor="1.04" vaporized=""/>
    <tripinfo id="c21" depart="32.00" departLane="654487789#0_1" departPos="5.10" departSpeed="0.00" departDelay="0.50" arrival="91.00" arrivalLane="626284345#0_2" arrivalPos="179.35" arrivalSpeed="28.62" duration="59.00" routeLength="503.73" waitingTime="16.00" waitingCount="1" stopTime="0.00" timeLoss="41.02" rerouteNo="0" devices="tripinfo_c21" vType="car" speedFactor="1.18" vaporized=""/>
    <tripinfo id="c15" depart="23.00" departLane="7078477#0_1" departPos="5.10" departSpeed="0.00" departDelay="0.50" arrival="95.00" arrivalLane="7276260#3_1" arrivalPos="185.59" arrivalSpeed="12.42" duration="72.00" routeLength="783.72" waitingTime="0.00" waitingCount="0" stopTime="0.00" timeLoss="15.14" rerouteNo="0" devices="tripinfo_c15" vType="car" speedFactor="0.96" vaporized=""/>
    <tripinfo id="c19" depart="29.00" departLane="80798172#4_1" departPos="5.10" departSpeed="0.00" departDelay="0.50" arrival="96.00" arrivalLane="-80565710#1_1" arrivalPos="107.30" arrivalSpeed="23.26" duration="67.00" routeLength="1108.13" waitingTime="0.00" waitingCount="0" stopTime="0.00" timeLoss="14.60" rerouteNo="0" devices="tripinfo_c19" vType="car" speedFactor="1.06" vaporized=""/>
    <tripinfo id="c42" depart="63.00" departLane="80798172#2_1" departPos="5.10" departSpeed="0.00" departDelay="0.00" arrival="98.00" arrivalLane="-80798172#1_1" arrivalPos="101.61" arrivalSpeed="13.96" duration="35.00" routeLength="318.82" waitingTime="0.00" waitingCount="0" stopTime="0.00" timeLoss="10.89" rerouteNo="0" devices="tripinfo_c42" vType="car" speedFactor="1.03" vaporized=""/>
    <tripinfo id="c1" depart="2.00" departLane="-7142812#4_1" departPos="5.10" departSpeed="0.00" departDelay="0.50" arrival="101.00" arrivalLane="626093615#2_2" arrivalPos="60.66" arrivalSpeed="24.98" duration="99.00" routeLength="1277.19" waitingTime="8.00" waitingCount="1" stopTime="0.00" timeLoss="41.49" rerouteNo="0" devices="tripinfo_c1" vType="car" speedFactor="1.02" vaporized=""/>
    <tripinfo id="c18" depart="27.00" departLane="-474688713#3_1" departPos="5.10" departSpeed="0.00" departDelay="0.00" arrival="106.00" arrivalLane="-80798172#1_1" arrivalPos="101.61" arrivalSpeed="7.31" duration="79.00" routeLength="978.86" waitingTime="0.00" waitingCount="0" stopTime="0.00" timeLoss="22.89" rerouteNo="0" devices="tripinfo_c18" vType="car" speedFactor="0.93" vaporized=""/>
    <tripinfo id="c6" depart="9.00" departLane="-7142807#5_1" departPos="5.10" departSpeed="0.00" departDelay="0.00" arrival="113.00" arrivalLane="7276317#0_1" arrivalPos="239.30" arrivalSpeed="15.44" duration="104.00" routeLength="1534.33" waitingTime="0.00" waitingCount="0" stopTime="0.00" timeLoss="25.73" rerouteNo="0" devices="tripinfo_c6" vType="car" speedFactor="1.16" vaporized=""/>
    <tripinfo id="c47" depart="71.00" departLane="7276260#0_1" departPos="5.10" departSpeed="0.00" departDelay="0.50" arrival="113.00" arrivalLane="-80798171#2_1" arrivalPos="103.53" arrivalSpeed="21.38" duration="42.00" routeLength="485.97" waitingTime="0.00" waitingCount="0" stopTime="0.00" timeLoss="10.04" rerouteNo="0" devices="tripinfo_c47" vType="car" speedFactor="1.03" vaporized=""/>
    <tripinfo id="c12" depart="18.00" departLane="80565710#2_1" departPos="5.10" departSpeed="0.00" departDelay="0.00" arrival="116.00" arrivalLane="80565714#0_1" arrivalPos="186.46" arrivalSpeed="27.82" duration="98.00" routeLength="1405.38" waitingTime="16.00" waitingCount="1" stopTime="0.00" timeLoss="41.57" rerouteNo="0" devices="tripinfo_c12" vType="car" speedFactor="1.00" vaporized=""/>
    <tripinfo id="c34" depart="51.00" departLane="-125135491#1_1" departPos="5.10" departSpeed="0.00" departDelay="0.00" arrival="121.00" arrivalLane="626283151#0_1" arrivalPos="108.54" arrivalSpeed="19.61" duration="70.00" routeLength="612.09" waitingTime="19.00" waitingCount="1" stopTime="0.00" timeLoss="44.63" rerouteNo="0" devices="tripinfo_c34" vType="car" speedFactor="0.94" vaporized=""/>
    <tripinfo id="c17" depart="26.00" departLane="-7123182#6_1" departPos="5.10" departSpeed="0.00" departDelay="0.50" arrival="123.00" arrivalLane="474689217_2" arrivalPos="29.94" arrivalSpeed="24.15" duration="97.00" routeLength="666.70" waitingTime="31.00" waitingCount="1" stopTime="0.00" timeLoss="58.66" rerouteNo="0" devices="tripinfo_c17" vType="car" speedFactor="1.07" vaporized=""/>
    <tripinfo id="c38" depart="57.00" departLane="973970332#0_1" departPos="5.10" departSpeed="0.00" departDelay="0.00" arrival="124.00" arrivalLane="626093615#0_1" arrivalPos="23.73" arrivalSpeed="16.56" duration="67.00" routeLength="956.83" waitingTime="7.00" waitingCount="1" stopTime="0.00" timeLoss="35.76" rerouteNo="0" devices="tripinfo_c38" vType="car" speedFactor="1.14" vaporized=""/>
    <tripinfo id="c58" depart="87.00" departLane="80565710#2_1" departPos="5.10" departSpeed="0.00" departDelay="0.00" arrival="125.00" arrivalLane="-80565710#13_1" arrivalPos="101.18" arrivalSpeed="20.09" duration="38.00" routeLength="595.98" waitingTime="0.00" waitingCount="0" stopTime="0.00" timeLoss="12.02" rerouteNo="0" devices="tripinfo_c58" vType="car" speedFactor="1.07" vaporized=""/>
    <tripinfo id="c7" depart="11.00" departLane="7098383#0_1" departPos="5.10" departSpeed="0.00" departDelay="0.50" arrival="127.00" arrivalLane="-7090087#1_1" arrivalPos="189.62" arrivalSpeed="11.71" duration="116.00" routeLength="926.67" waitingTime="35.00" waitingCount="1" stopTime="0.00" timeLoss="55.37" rerouteNo="0" devices="tripinfo_c7" vType="car" speedFactor="0.94" vaporized=""/>
    <tripinfo id="c65" depart="98.00" departLane="650708094#0_1" departPos="5.10" departSpeed="0.00" departDelay="0.50" arrival="130.00" arrivalLane="-7123182#13_1" arrivalPos="137.57" arrivalSpeed="12.65" duration="32.00" routeLength="413.29" waitingTime="0.00" waitingCount="0" stopTime="0.00" timeLoss="9.98" rerouteNo="0" devices="tripinfo_c65" vType="car" speedFactor="0.95" vaporized=""/>
    <tripinfo id="c22" depart="33.00" departLane="80798171#11_1" departPos="5.10" departSpeed="0.00" departDelay="0.00" arrival="133.00" arrivalLane="-80565710#3_1" arrivalPos="118.58" arrivalSpeed="23.11" duration="100.00" routeLength="1174.13" waitingTime="20.00" waitingCount="1" stopTime="0.00" timeLoss="49.62" rerouteNo="0" devices="tripinfo_c22" vType="car" speedFactor="1.08" vaporized=""/>
    <tripinfo id="c39" depart="59.00" departLane="125135491#2_1" departPos="5.10" departSpeed="0.00" departDelay="0.50" arrival="134.00" arrivalLane="80798171#10_1" arrivalPos="84.62" arrivalSpeed="21.23" duration="75.00" routeLength="1017.33" waitingTime="0.00" waitingCount="0" stopTime="0.00" timeLoss="27.38" rerouteNo="0" devices="tripinfo_c39" vType="car" speedFactor="0.96" vaporized=""/>
    <tripinfo id="c13" depart="20.00" departLane="973970332#0_1" departPos="5.10" departSpeed="0.00" departDelay="0.50" arrival="137.00" arrivalLane="-7276260#4_1" arrivalPos="185.59" arrivalSpeed="12.66" duration="117.00" routeLength="1866.61" waitingTime="2.00" waitingCount="1" stopTime="0.00" timeLoss="35.82" rerouteNo="0" devices="tripinfo_c13" vType="car" speedFactor="0.97" vaporized=""/>
    <tripinfo id="c44" depart="66.00" departLane="-7142807#1_1" departPos="5.10" departSpeed="0.00" departDelay="0.00" arrival="137.00" arrivalLane="-80565714#9_1" arrivalPos="241.83" arrivalSpeed="14.41" duration="71.00" routeLength="1171.11" waitingTime="0.00" waitingCount="0" stopTime="0.00" timeLoss="20.08" rerouteNo="0" devices="tripinfo_c44" vType="car" speedFactor="1.06" vaporized=""/>
    <tripinfo id="c0" depart="0.00" departLane="80565714#5_1" departPos="5.10" departSpeed="0.00" departDelay="0.00" arrival="139.00" arrivalLane="-7098388#2_1" arrivalPos="401.91" arrivalSpeed="13.69" duration="139.00" routeLength="2093.45" waitingTime="7.00" waitingCount="1" stopTime="0.00" timeLoss="39.93" rerouteNo="0" devices="tripinfo_c0" vType="car" speedFactor="1.03" vaporized=""/>
    <tripinfo id="c28" depart="42.00" departLane="7281810#0_1" departPos="5.10" departSpeed="0.00" departDelay="0.00" arrival="139.00" arrivalLane="-514518467#1_1" arrivalPos="99.77" arrivalSpeed="21.65" duration="97.00" routeLength="1005.15" waitingTime="19.00" waitingCount="2" stopTime="0.00" timeLoss="52.25" rerouteNo="0" devices="tripinfo_c28" vType="car" speedFactor="1.13" vaporized=""/>
    <tripinfo id="c50" depart="75.00" departLane="-7276260#2_1" departPos="5.10" departSpeed="0.00" departDelay="0.00" arrival="143.00" arrivalLane="475159104#0_1" arrivalPos="154.81" arrivalSpeed="15.27" duration="68.00" routeLength="618.46" waitingTime="8.00" waitingCount="1" stopTime="0.00" timeLoss="28.93" rerouteNo="0" devices="tripinfo_c50" vType="car" speedFactor="0.92" vaporized=""/>
    <tripinfo id="c5" depart="8.00" departLane="80565714#3_1" departPos="5.10" departSpeed="0.00" departDelay="0.50" arrival="144.00" arrivalLane="-475159105#4_1" arrivalPos="96.05" arrivalSpeed="18.81" duration="136.00" routeLength="1363.56" waitingTime="56.00" waitingCount="1" stopTime="0.00" timeLoss="82.67" rerouteNo="0" devices="tripinfo_c5" vType="car" speedFactor="1.11" vaporized=""/>
    <tripinfo id="c33" depart="50.00" departLane="-7276260#8_1" departPos="5.10" departSpeed="0.00" departDelay="0.50" arrival="144.00" arrivalLane="7142812#1_1" arrivalPos="297.93" arrivalSpeed="12.58" duration="94.00" routeLength="769.85" waitingTime="18.00" waitingCount="1" stopTime="0.00" timeLoss="37.54" rerouteNo="0" devices="tripinfo_c33" vType="car" speedFactor="0.98" vaporized=""/>
    <tripinfo id="c4" depart="6.00" departLane="-7123182#6_1" departPos="5.10" departSpeed="0.00" departDelay="0.00" arrival="145.00" arrivalLane="7098383#4_1" arrivalPos="105.07" arrivalSpeed="12.87" duration="139.00" routeLength="1495.66" waitingTime="11.00" waitingCount="2" stopTime="0.00" timeLoss="55.50" rerouteNo="0" devices="tripinfo_c4" vType="car" speedFactor="0.95" vaporized=""/>
    <tripinfo id="c31" depart="47.00" departLane="7078477#0_1" departPos="5.10" departSpeed="0.00" departDelay="0.50" arrival="150.00" arrivalLane="80565714#5_1" arrivalPos="241.83" arrivalSpeed="26.96" duration="103.00" routeLength="1444.59" waitingTime="0.00" waitingCount="0" stopTime="0.00" timeLoss="33.52" rerouteNo="0" devices="tripinfo_c31" vType="car" speedFactor="1.00" vaporized=""/>
    <tripinfo id="c51" depart="77.00" departLane="7142807#4_1" departPos="5.10" departSpeed="0.00" departDelay="0.50" arrival="152.00" arrivalLane="-80565710#1_1" arrivalPos="107.30" arrivalSpeed="22.68" duration="75.00" routeLength="1119.06" waitingTime="0.00" waitingCount="0" stopTime="0.00" timeLoss="13.53" rerouteNo="0" devices="tripinfo_c51" vType="car" speedFactor="1.08" vaporized=""/>
    <tripinfo id="c26" depart="39.00" departLane="475159095_1" departPos="5.10" departSpeed="0.00" departDelay="0.00" arrival="155.00" arrivalLane="-7142807#1_1" arrivalPos="151.52" arrivalSpeed="14.37" duration="116.00" routeLength="1229.89" waitingTime="31.00" waitingCount="1" stopTime="0.00" timeLoss="56.11" rerouteNo="0" devices="tripinfo_c26" vType="car" speedFactor="1.08" vaporized=""/>
    <tripinfo id="c57" depart="86.00" departLane="-7276260#6_1" departPos="5.10" departSpeed="0.00" departDelay="0.50" arrival="163.00" arrivalLane="-7198375#6_1" arrivalPos="119.46" arrivalSpeed="14.91" duration="77.00" routeLength="1046.24" waitingTime="0.00" waitingCount="0" stopTime="0.00" timeLoss="26.14" rerouteNo="0" devices="tripinfo_c57" vType="car" speedFactor="1.10" vaporized=""/>
    <tripinfo id="c67" depart="101.00" departLane="7098388#0_1" departPos="5.10" departSpeed="0.00" departDelay="0.50" arrival="164.00" arrivalLane="-7328604#13_1" arrivalPos="78.93" arrivalSpeed="14.00" duration="63.00" routeLength="704.06" waitingTime="0.00" waitingCount="0" stopTime="0.00" timeLoss="12.73" rerouteNo="0" devices="tripinfo_c67" vType="car" speedFactor="1.04" vaporized=""/>
    <tripinfo id="c16" depart="24.00" departLane="80565710#11_1" departPos="5.10" departSpeed="0.00" departDelay="0.00" arrival="165.00" arrivalLane="475159105#1_2" arrivalPos="96.03" arrivalSpeed="16.95" duration="141.00" routeLength="1654.24" waitingTime="20.00" waitingCount="3" stopTime="0.00" timeLoss="60.96" rerouteNo="0" devices="tripinfo_c16" vType="car" speedFactor="1.00" vaporized=""/>
    <tripinfo id="c73" depart="110.00" departLane="474688713#4_1" departPos="5.10" departSpeed="0.00" departDelay="0.50" arrival="172.00" arrivalLane="7123182#0_1" arrivalPos="118.92" arrivalSpeed="12.18" duration="62.00" routeLength="846.39" waitingTime="0.00" waitingCount="0" stopTime="0.00" timeLoss="22.71" rerouteNo="0" devices="tripinfo_c73" vType="car" speedFactor="0.96" vaporized=""/>
    <tripinfo id="c75" depart="113.00" departLane="-80798172#4_1" departPos="5.10" departSpeed="0.00" departDelay="0.50" arrival="173.00" arrivalLane="-7276260#4_1" arrivalPos="185.59" arrivalSpeed="14.41" duration="60.00" routeLength="694.49" waitingTime="0.00" waitingCount="0" stopTime="0.00" timeLoss="15.84" rerouteNo="0" devices="tripinfo_c75" vType="car" speedFactor="1.10" vaporized=""/>
    <tripinfo id="c40" depart="60.00" departLane="-7247663#1_1" departPos="5.10" departSpeed="0.00" departDelay="0.00" arrival="175.00" arrivalLane="-7098388#2_1" arrivalPos="401.91" arrivalSpeed="11.76" duration="115.00" routeLength="1455.54" waitingTime="0.00" waitingCount="0" stopTime="0.00" timeLoss="25.98" rerouteNo="0" devices="tripinfo_c40" vType="car" speedFactor="0.92" vaporized=""/>
    <tripinfo id="c48" depart="72.00" departLane="626800306#0_1" departPos="5.10" departSpeed="0.00" departDelay="0.00" arrival="179.00" arrivalLane="-80565710#18_1" arrivalPos="157.30" arrivalSpeed="23.47" duration="107.00" routeLength="2151.94" waitingTime="0.00" waitingCount="0" stopTime="0.00" timeLoss="24.63" rerouteNo="0" devices="tripinfo_c48" vType="car" speedFactor="1.08" vaporized=""/>
    <tripinfo id="c88" depart="135.00" departLane="7247663#0_1" departPos="5.10" departSpeed="0.00" departDelay="3.00" arrival="180.00" arrivalLane="-80798172#3_1" arrivalPos="101.59" arrivalSpeed="14.37" duration="45.00" routeLength="479.82" waitingTime="0.00" waitingCount="0" stopTime="0.00" timeLoss="14.75" rerouteNo="0" devices="tripinfo_c88" vType="car" speedFactor="1.06" vaporized=""/>
    <tripinfo id="c30" depart="45.00" departLane="-7328604#2_1" departPos="5.10" departSpeed="0.00" departDelay="0.00" arrival="188.00" arrivalLane="-80565710#13_1" arrivalPos="101.18" arrivalSpeed="19.85" duration="143.00" routeLength="1771.95" waitingTime="17.00" waitingCount="1" stopTime="0.00" timeLoss="45.64" rerouteNo="0" devices="tripinfo_c30" vType="car" speedFactor="0.91" vaporized=""/>
    <tripinfo id="c43" depart="65.00" departLane="-7142807#5_1" departPos="5.10" departSpeed="0.00" departDelay="0.50" arrival="189.00" arrivalLane="-7328604#5_1" arrivalPos="180.22" arrivalSpeed="14.72" duration="124.00" routeLength="1060.91" waitingTime="33.00" waitingCount="1" stopTime="0.00" timeLoss="65.28" rerouteNo="0" devices="tripinfo_c43" vType="car" speedFactor="1.08" vaporized=""/>
    <tripinfo id="c96" depart="144.00" departLane="7276260#3_1" departPos="5.10" departSpeed="0.00" departDelay="0.00" arrival="189.00" arrivalLane="80565710#8_1" arrivalPos="58.43" arrivalSpeed="21.70" duration="45.00" routeLength="577.89" waitingTime="0.00" waitingCount="0" stopTime="0.00" timeLoss="15.71" rerouteNo="0" devices="tripinfo_c96" vType="car" speedFactor="1.14" vaporized=""/>
    <tripinfo id="c72" depart="108.00" departLane="-80798172#3_1" departPos="5.10" departSpeed="0.00" departDelay="0.00" arrival="190.00" arrivalLane="474688707_1" arrivalPos="24.76" arrivalSpeed="21.90" duration="82.00" routeLength="1040.47" waitingTime="0.00" waitingCount="0" stopTime="0.00" timeLoss="25.98" rerouteNo="0" devices="tripinfo_c72" vType="car" speedFactor="0.97" vaporized=""/>
    <tripinfo id="c27" depart="43.00" departLane="-7123182#13_1" departPos="5.10" departSpeed="0.00" departDelay="2.50" arrival="196.00" arrivalLane="7276260#3_1" arrivalPos="185.59" arrivalSpeed="13.23" duration="153.00" routeLength="1183.32" waitingTime="44.00" waitingCount="3" stopTime="0.00" timeLoss="84.80" rerouteNo="0" devices="tripinfo_c27" vType="car" speedFactor="0.99" vaporized=""/>
    <tripinfo id="c56" depart="84.00" departLane="80798171#9_1" departPos="5.10" departSpeed="0.00" departDelay="0.00" arrival="196.00" arrivalLane="-80565710#1_1" arrivalPos="107.30" arrivalSpeed="19.62" duration="112.00" routeLength="1109.67" waitingTime="31.00" waitingCount="1" stopTime="0.00" timeLoss="56.06" rerouteNo="0" devices="tripinfo_c56" vType="car" speedFactor="0.93" vaporized=""/>
    <tripinfo id="c74" depart="111.00" departLane="-80798171#9_1" departPos="5.10" departSpeed="0.00" departDelay="0.00" arrival="196.00" arrivalLane="-7098383#1_1" arrivalPos="152.57" arrivalSpeed="12.76" duration="85.00" routeLength="721.23" waitingTime="19.00" waitingCount="2" stopTime="0.00" timeLoss="39.80" rerouteNo="0" devices="tripinfo_c74" vType="car" speedFactor="0.98" vaporized=""/>
    <tripinfo id="c97" depart="148.00" departLane="-80798171#9_1" departPos="5.10" departSpeed="0.00" departDelay="2.50" arrival="197.00" arrivalLane="7247663#0_1" arrivalPos="135.75" arrivalSpeed="20.63" duration="49.00" routeLength="753.71" waitingTime="0.00" waitingCount="0" stopTime="0.00" timeLoss="12.34" rerouteNo="0" devices="tripinfo_c97" vType="car" speedFactor="0.97" vaporized=""/>
    <tripinfo id="c82" depart="123.00" departLane="-626799488#6_1" departPos="5.10" departSpeed="0.00" departDelay="0.00" arrival="199.00" arrivalLane="626799488#0_1" arrivalPos="192.60" arrivalSpeed="23.29" duration="76.00" routeLength="770.70" waitingTime="14.00" waitingCount="1" stopTime="0.00" timeLoss="42.23" rerouteNo="0" devices="tripinfo_c82" vType="car" speedFactor="1.07" vaporized=""/>
    <tripinfo id="c55" depart="84.00" departLane="-7123182#18_1" departPos="5.10" departSpeed="0.00" departDelay="1.50" arrival="200.00" arrivalLane="475159104#0_2" arrivalPos="154.81" arrivalSpeed="15.29" duration="116.00" routeLength="853.88" waitingTime="42.00" waitingCount="2" stopTime="0.00" timeLoss="65.80" rerouteNo="0" devices="tripinfo_c55" vType="car" speedFactor="0.90" vaporized=""/>
    <tripinfo id="c23" depart="35.00" departLane="7142812#5_1" departPos="5.10" departSpeed="0.00" departDelay="0.50" arrival="202.00" arrivalLane="7276267#0_1" arrivalPos="124.07" arrivalSpeed="12.00" duration="167.00" routeLength="1422.70" waitingTime="46.00" waitingCount="3" stopTime="0.00" timeLoss="85.02" rerouteNo="0" devices="tripinfo_c23" vType="car" speedFactor="0.91" vaporized=""/>
    <tripinfo id="c60" depart="90.00" departLane="-7098388#2_1" departPos="5.10" departSpeed="0.00" departDelay="0.00" arrival="203.00" arrivalLane="626288020#0_2" arrivalPos="101.97" arrivalSpeed="18.86" duration="113.00" routeLength="596.30" waitingTime="50.00" waitingCount="1" stopTime="0.00" timeLoss="67.91" rerouteNo="0" devices="tripinfo_c60" vType="car" speedFactor="0.84" vaporized=""/>
    <tripinfo id="c10" depart="15.00" departLane="-7281814#2_1" departPos="5.10" departSpeed="0.00" departDelay="0.00" arrival="204.00" arrivalLane="-626283217#4_2" arrivalPos="107.12" arrivalSpeed="22.39" duration="189.00" routeLength="1640.53" waitingTime="57.00" waitingCount="4" stopTime="0.00" timeLoss="119.15" rerouteNo="0" devices="tripinfo_c10" vType="car" speedFactor="1.14" vaporized=""/>
    <tripinfo id="c41" depart="62.00" departLane="-7276260#8_1" departPos="5.10" departSpeed="0.00" departDelay="0.50" arrival="206.00" arrivalLane="-7328604#2_1" arrivalPos="186.84" arrivalSpeed="14.78" duration="144.00" routeLength="1317.70" waitingTime="33.00" waitingCount="1" stopTime="0.00" timeLoss="68.10" rerouteNo="0" devices="tripinfo_c41" vType="car" speedFactor="1.09" vaporized=""/>
    <tripinfo id="c61" depart="92.00" departLane="-80565710#3_1" departPos="5.10" departSpeed="0.00" departDelay="0.50" arrival="208.00" arrivalLane="626284345#5_2" arrivalPos="106.29" arrivalSpeed="28.25" duration="116.00" routeLength="967.82" waitingTime="56.00" waitingCount="1" stopTime="0.00" timeLoss="77.48" rerouteNo="0" devices="tripinfo_c61" vType="car" speedFactor="1.03" vaporized=""/>
    <tripinfo id="c80" depart="121.00" departLane="626283151#1_1" departPos="5.10" departSpeed="0.00" departDelay="1.00" arrival="212.00" arrivalLane="-7276260#2_1" arrivalPos="178.42" arrivalSpeed="15.01" duration="91.00" routeLength="736.08" waitingTime="29.00" waitingCount="1" stopTime="0.00" timeLoss="53.93" rerouteNo="0" devices="tripinfo_c80" vType="car" speedFactor="1.09" vaporized=""/>
    <tripinfo id="c98" depart="147.00" departLane="-80565462#3_1" departPos="5.10" departSpeed="0.00" departDelay="0.00" arrival="213.00" arrivalLane="-7281814#2_1" arrivalPos="193.98" arrivalSpeed="15.27" duration="66.00" routeLength="1074.21" waitingTime="0.00" waitingCount="0" stopTime="0.00" timeLoss="17.20" rerouteNo="0" devices="tripinfo_c98" vType="car" speedFactor="1.15" vaporized=""/>
    <tripinfo id="c76" depart="114.00" departLane="474688711_1" departPos="5.10" departSpeed="0.00" departDelay="0.00" arrival="217.00" arrivalLane="-80565710#6_1" arrivalPos="143.65" arrivalSpeed="22.78" duration="103.00" routeLength="1032.36" waitingTime="25.00" waitingCount="1" stopTime="0.00" timeLoss="59.31" rerouteNo="0" devices="tripinfo_c76" vType="car" speedFactor="1.04" vaporized=""/>
    <tripinfo id="c101" depart="152.00" departLane="-80565714#4_1" departPos="5.10" departSpeed="0.00" departDelay="0.50" arrival="218.00" arrivalLane="-474688713#1_2" arrivalPos="38.05" arrivalSpeed="12.32" duration="66.00" routeLength="780.61" waitingTime="1.00" waitingCount="1" stopTime="0.00" timeLoss="36.25" rerouteNo="0" devices="tripinfo_c101" vType="car" speedFactor="1.04" vaporized=""/>
    <tripinfo id="c29" depart="44.00" departLane="-7123182#6_1" departPos="5.10" departSpeed="0.00" departDelay="0.50" arrival="219.00" arrivalLane="-80798171#8_1" arrivalPos="91.13" arrivalSpeed="8.62" duration="175.00" routeLength="1357.82" waitingTime="38.00" waitingCount="4" stopTime="0.00" timeLoss="110.40" rerouteNo="0" devices="tripinfo_c29" vType="car" speedFactor="1.05" vaporized=""/>
    <tripinfo id="c32" depart="49.00" departLane="80798171#3_1" departPos="5.10" departSpeed="0.00" departDelay="1.00" arrival="220.00" arrivalLane="-80565714#4_1" arrivalPos="128.42" arrivalSpeed="27.65" duration="171.00" routeLength="1443.60" waitingTime="83.00" waitingCount="2" stopTime="0.00" timeLoss="115.11" rerouteNo="0" devices="tripinfo_c32" vType="car" speedFactor="1.03" vaporized=""/>
    <tripinfo id="c111" depart="167.00" departLane="-7276260#2_1" departPos="5.10" departSpeed="0.00" departDelay="0.50" arrival="224.00" arrivalLane="626282455#0_2" arrivalPos="134.18" arrivalSpeed="25.77" duration="57.00" routeLength="454.66" waitingTime="11.00" waitingCount="2" stopTime="0.00" timeLoss="31.03" rerouteNo="0" devices="tripinfo_c111" vType="car" speedFactor="0.97" vaporized=""/>
    <tripinfo id="c127" depart="191.00" departLane="7281810#0_1" departPos="5.10" departSpeed="0.00" departDelay="0.50" arrival="228.00" arrivalLane="-80798171#12_1" arrivalPos="85.61" arrivalSpeed="17.66" duration="37.00" routeLength="365.96" waitingTime="0.00" waitingCount="0" stopTime="0.00" timeLoss="14.47" rerouteNo="0" devices="tripinfo_c127" vType="car" speedFactor="1.04" vaporized=""/>
    <tripinfo id="c25" depart="38.00" departLane="7281810#0_1" departPos="5.10" departSpeed="0.00" departDelay="0.50" arrival="229.00" arrivalLane="7123182#3_1" arrivalPos="103.48" arrivalSpeed="11.85" duration="191.00" routeLength="1664.42" waitingTime="48.00" waitingCount="3" stopTime="0.00" timeLoss="91.39" rerouteNo="0" devices="tripinfo_c25" vType="car" speedFactor="0.88" vaporized=""/>
    <tripinfo id="c85" depart="128.00" departLane="-7276317#7_1" departPos="5.10" departSpeed="0.00" departDelay="0.50" arrival="230.00" arrivalLane="626283217#0_2" arrivalPos="107.13" arrivalSpeed="26.58" duration="102.00" routeLength="1002.98" waitingTime="20.00" waitingCount="1" stopTime="0.00" timeLoss="45.01" rerouteNo="0" devices="tripinfo_c85" vType="car" speedFactor="1.00" vaporized=""/>
    <tripinfo id="c8" depart="12.00" departLane="-80798172#4_1" departPos="5.10" departSpeed="0.00" departDelay="0.00" arrival="232.00" arrivalLane="626800306#0_2" arrivalPos="376.98" arrivalSpeed="30.41" duration="220.00" routeLength="2225.67" waitingTime="72.00" waitingCount="4" stopTime="0.00" timeLoss="132.08" rerouteNo="0" devices="tripinfo_c8" vType="car" speedFactor="1.13" vaporized=""/>
    <tripinfo id="c62" depart="93.00" departLane="474688711_1" departPos="5.10" departSpeed="0.00" departDelay="0.00" arrival="233.00" arrivalLane="80798171#3_1" arrivalPos="99.86" arrivalSpeed="10.58" duration="140.00" routeLength="696.79" waitingTime="62.00" waitingCount="3" stopTime="0.00" timeLoss="105.70" rerouteNo="0" devices="tripinfo_c62" vType="car" speedFactor="0.87" vaporized=""/>
    <tripinfo id="c46" depart="69.00" departLane="-125135491#9_1" departPos="5.10" departSpeed="0.00" departDelay="0.00" arrival="236.00" arrivalLane="-80565714#2_1" arrivalPos="186.46" arrivalSpeed="27.28" duration="167.00" routeLength="2317.99" waitingTime="35.00" waitingCount="1" stopTime="0.00" timeLoss="79.00" rerouteNo="0" devices="tripinfo_c46" vType="car" speedFactor="1.03" vaporized=""/>
    <tripinfo id="c87" depart="131.00" departLane="475159102#1_1" departPos="5.10" departSpeed="0.00" departDelay="0.50" arrival="236.00" arrivalLane="7276260#0_1" arrivalPos="178.42" arrivalSpeed="11.27" duration="105.00" routeLength="938.24" waitingTime="16.00" waitingCount="2" stopTime="0.00" timeLoss="39.00" rerouteNo="0" devices="tripinfo_c87" vType="car" speedFactor="0.84" vaporized=""/>
    <tripinfo id="c66" depart="99.00" departLane="475159104#0_1" departPos="5.10" departSpeed="0.00" departDelay="0.00" arrival="237.00" arrivalLane="-80565714#9_1" arrivalPos="241.83" arrivalSpeed="23.54" duration="138.00" routeLength="1271.49" waitingTime="50.00" waitingCount="1" stopTime="0.00" timeLoss="72.14" rerouteNo="0" devices="tripinfo_c66" vType="car" speedFactor="0.87" vaporized=""/>
    <tripinfo id="c123" depart="185.00" departLane="7098383#2_1" departPos="5.10" departSpeed="0.00" departDelay="0.50" arrival="237.00" arrivalLane="-80565710#6_1" arrivalPos="143.65" arrivalSpeed="21.86" duration="52.00" routeLength="652.34" waitingTime="0.00" waitingCount="0" stopTime="0.00" timeLoss="14.94" rerouteNo="0" devices="tripinfo_c123" vType="car" speedFactor="1.01" vaporized=""/>